# LAMMPS data file written by OVITO Basic 3.3.5
1824 atoms
3 atom types
-11.363663 11.363663 xlo xhi
-11.358273 11.358273 ylo yhi
-2.331251 41.316429 zlo zhi

Masses

1 12.0107  # CNT
2 12.0107  # C60
3 12.0107  # C60

Atoms  # atomic

1 1 11.363663 0.0 0.0
2 1 11.277532 -1.396461 0.0
3 1 10.5963 -4.105029 0.0
4 1 10.011526 -5.376076 0.0
5 1 8.397848 -7.65565 0.0
6 1 7.393407 -8.629622 0.0
7 1 5.06522 -10.172334 0.0
8 1 3.776768 -10.717689 0.0
9 1 1.048507 -11.315188 0.0
10 1 -0.349945 -11.358273 0.0
11 1 -3.109814 -10.929862 0.0
12 1 -4.429395 -10.46486 0.0
13 1 -6.848137 -9.068399 0.0
14 1 -7.910632 -8.158109 0.0
15 1 -9.661581 -5.982198 0.0
16 1 -10.323493 -4.74956 0.0
17 1 -11.170175 -2.088068 0.0
18 1 -11.34211 -0.699557 0.0
19 1 -11.170175 2.088068 0.0
20 1 -10.828912 3.444925 0.0
21 1 -9.661581 5.982198 0.0
22 1 -8.853209 7.124151 0.0
23 1 -6.848137 9.068399 0.0
24 1 -5.681831 9.841221 0.0
25 1 -3.109814 10.929862 0.0
26 1 -1.743091 11.229179 0.0
27 1 1.048507 11.315188 0.0
28 1 2.431063 11.100575 0.0
29 1 5.06522 10.172334 0.0
30 1 6.276889 9.472777 0.0
31 1 8.397848 7.65565 0.0
32 1 9.274987 6.565627 0.0
33 1 10.5963 4.105029 0.0
34 1 11.020445 2.771753 0.0
35 1 11.170175 -2.088068 1.212436
36 1 10.828912 -3.444925 1.212436
37 1 9.661581 -5.982198 1.212436
38 1 8.853209 -7.124151 1.212436
39 1 6.848137 -9.068399 1.212436
40 1 5.681831 -9.841221 1.212436
41 1 3.109814 -10.929862 1.212436
42 1 1.743091 -11.229179 1.212436
43 1 -1.048507 -11.315188 1.212436
44 1 -2.431063 -11.100575 1.212436
45 1 -5.06522 -10.172334 1.212436
46 1 -6.276889 -9.472777 1.212436
47 1 -8.397848 -7.65565 1.212436
48 1 -9.274987 -6.565627 1.212436
49 1 -10.5963 -4.105029 1.212436
50 1 -11.020445 -2.771753 1.212436
51 1 -11.363663 0.0 1.212436
52 1 -11.277532 1.396461 1.212436
53 1 -10.5963 4.105029 1.212436
54 1 -10.011526 5.376076 1.212436
55 1 -8.397848 7.65565 1.212436
56 1 -7.393407 8.629622 1.212436
57 1 -5.06522 10.172334 1.212436
58 1 -3.776768 10.717689 1.212436
59 1 -1.048507 11.315188 1.212436
60 1 0.349945 11.358273 1.212436
61 1 3.109814 10.929862 1.212436
62 1 4.429395 10.46486 1.212436
63 1 6.848137 9.068399 1.212436
64 1 7.910632 8.158109 1.212436
65 1 9.661581 5.982198 1.212436
66 1 10.323493 4.74956 1.212436
67 1 11.170175 2.088068 1.212436
68 1 11.34211 0.699557 1.212436
69 1 10.5963 -4.105029 2.424871
70 1 10.011526 -5.376076 2.424871
71 1 8.397848 -7.65565 2.424871
72 1 7.393407 -8.629622 2.424871
73 1 5.06522 -10.172334 2.424871
74 1 3.776768 -10.717689 2.424871
75 1 1.048507 -11.315188 2.424871
76 1 -0.349945 -11.358273 2.424871
77 1 -3.109814 -10.929862 2.424871
78 1 -4.429395 -10.46486 2.424871
79 1 -6.848137 -9.068399 2.424871
80 1 -7.910632 -8.158109 2.424871
81 1 -9.661581 -5.982198 2.424871
82 1 -10.323493 -4.74956 2.424871
83 1 -11.170175 -2.088068 2.424871
84 1 -11.34211 -0.699557 2.424871
85 1 -11.170175 2.088068 2.424871
86 1 -10.828912 3.444925 2.424871
87 1 -9.661581 5.982198 2.424871
88 1 -8.853209 7.124151 2.424871
89 1 -6.848137 9.068399 2.424871
90 1 -5.681831 9.841221 2.424871
91 1 -3.109814 10.929862 2.424871
92 1 -1.743091 11.229179 2.424871
93 1 1.048507 11.315188 2.424871
94 1 2.431063 11.100575 2.424871
95 1 5.06522 10.172334 2.424871
96 1 6.276889 9.472777 2.424871
97 1 8.397848 7.65565 2.424871
98 1 9.274987 6.565627 2.424871
99 1 10.5963 4.105029 2.424871
100 1 11.020445 2.771753 2.424871
101 1 11.363663 0.0 2.424871
102 1 11.277532 -1.396461 2.424871
103 1 9.661581 -5.982198 3.637307
104 1 8.853209 -7.124151 3.637307
105 1 6.848137 -9.068399 3.637307
106 1 5.681831 -9.841221 3.637307
107 1 3.109814 -10.929862 3.637307
108 1 1.743091 -11.229179 3.637307
109 1 -1.048507 -11.315188 3.637307
110 1 -2.431063 -11.100575 3.637307
111 1 -5.06522 -10.172334 3.637307
112 1 -6.276889 -9.472777 3.637307
113 1 -8.397848 -7.65565 3.637307
114 1 -9.274987 -6.565627 3.637307
115 1 -10.5963 -4.105029 3.637307
116 1 -11.020445 -2.771753 3.637307
117 1 -11.363663 0.0 3.637307
118 1 -11.277532 1.396461 3.637307
119 1 -10.5963 4.105029 3.637307
120 1 -10.011526 5.376076 3.637307
121 1 -8.397848 7.65565 3.637307
122 1 -7.393407 8.629622 3.637307
123 1 -5.06522 10.172334 3.637307
124 1 -3.776768 10.717689 3.637307
125 1 -1.048507 11.315188 3.637307
126 1 0.349945 11.358273 3.637307
127 1 3.109814 10.929862 3.637307
128 1 4.429395 10.46486 3.637307
129 1 6.848137 9.068399 3.637307
130 1 7.910632 8.158109 3.637307
131 1 9.661581 5.982198 3.637307
132 1 10.323493 4.74956 3.637307
133 1 11.170175 2.088068 3.637307
134 1 11.34211 0.699557 3.637307
135 1 11.170175 -2.088068 3.637307
136 1 10.828912 -3.444925 3.637307
137 1 8.397848 -7.65565 4.849742
138 1 7.393407 -8.629622 4.849742
139 1 5.06522 -10.172334 4.849742
140 1 3.776768 -10.717689 4.849742
141 1 1.048507 -11.315188 4.849742
142 1 -0.349945 -11.358273 4.849742
143 1 -3.109814 -10.929862 4.849742
144 1 -4.429395 -10.46486 4.849742
145 1 -6.848137 -9.068399 4.849742
146 1 -7.910632 -8.158109 4.849742
147 1 -9.661581 -5.982198 4.849742
148 1 -10.323493 -4.74956 4.849742
149 1 -11.170175 -2.088068 4.849742
150 1 -11.34211 -0.699557 4.849742
151 1 -11.170175 2.088068 4.849742
152 1 -10.828912 3.444925 4.849742
153 1 -9.661581 5.982198 4.849742
154 1 -8.853209 7.124151 4.849742
155 1 -6.848137 9.068399 4.849742
156 1 -5.681831 9.841221 4.849742
157 1 -3.109814 10.929862 4.849742
158 1 -1.743091 11.229179 4.849742
159 1 1.048507 11.315188 4.849742
160 1 2.431063 11.100575 4.849742
161 1 5.06522 10.172334 4.849742
162 1 6.276889 9.472777 4.849742
163 1 8.397848 7.65565 4.849742
164 1 9.274987 6.565627 4.849742
165 1 10.5963 4.105029 4.849742
166 1 11.020445 2.771753 4.849742
167 1 11.363663 0.0 4.849742
168 1 11.277532 -1.396461 4.849742
169 1 10.5963 -4.105029 4.849742
170 1 10.011526 -5.376076 4.849742
171 1 6.848137 -9.068399 6.062178
172 1 5.681831 -9.841221 6.062178
173 1 3.109814 -10.929862 6.062178
174 1 1.743091 -11.229179 6.062178
175 1 -1.048507 -11.315188 6.062178
176 1 -2.431063 -11.100575 6.062178
177 1 -5.06522 -10.172334 6.062178
178 1 -6.276889 -9.472777 6.062178
179 1 -8.397848 -7.65565 6.062178
180 1 -9.274987 -6.565627 6.062178
181 1 -10.5963 -4.105029 6.062178
182 1 -11.020445 -2.771753 6.062178
183 1 -11.363663 0.0 6.062178
184 1 -11.277532 1.396461 6.062178
185 1 -10.5963 4.105029 6.062178
186 1 -10.011526 5.376076 6.062178
187 1 -8.397848 7.65565 6.062178
188 1 -7.393407 8.629622 6.062178
189 1 -5.06522 10.172334 6.062178
190 1 -3.776768 10.717689 6.062178
191 1 -1.048507 11.315188 6.062178
192 1 0.349945 11.358273 6.062178
193 1 3.109814 10.929862 6.062178
194 1 4.429395 10.46486 6.062178
195 1 6.848137 9.068399 6.062178
196 1 7.910632 8.158109 6.062178
197 1 9.661581 5.982198 6.062178
198 1 10.323493 4.74956 6.062178
199 1 11.170175 2.088068 6.062178
200 1 11.34211 0.699557 6.062178
201 1 11.170175 -2.088068 6.062178
202 1 10.828912 -3.444925 6.062178
203 1 9.661581 -5.982198 6.062178
204 1 8.853209 -7.124151 6.062178
205 1 5.06522 -10.172334 7.274613
206 1 3.776768 -10.717689 7.274613
207 1 1.048507 -11.315188 7.274613
208 1 -0.349945 -11.358273 7.274613
209 1 -3.109814 -10.929862 7.274613
210 1 -4.429395 -10.46486 7.274613
211 1 -6.848137 -9.068399 7.274613
212 1 -7.910632 -8.158109 7.274613
213 1 -9.661581 -5.982198 7.274613
214 1 -10.323493 -4.74956 7.274613
215 1 -11.170175 -2.088068 7.274613
216 1 -11.34211 -0.699557 7.274613
217 1 -11.170175 2.088068 7.274613
218 1 -10.828912 3.444925 7.274613
219 1 -9.661581 5.982198 7.274613
220 1 -8.853209 7.124151 7.274613
221 1 -6.848137 9.068399 7.274613
222 1 -5.681831 9.841221 7.274613
223 1 -3.109814 10.929862 7.274613
224 1 -1.743091 11.229179 7.274613
225 1 1.048507 11.315188 7.274613
226 1 2.431063 11.100575 7.274613
227 1 5.06522 10.172334 7.274613
228 1 6.276889 9.472777 7.274613
229 1 8.397848 7.65565 7.274613
230 1 9.274987 6.565627 7.274613
231 1 10.5963 4.105029 7.274613
232 1 11.020445 2.771753 7.274613
233 1 11.363663 0.0 7.274613
234 1 11.277532 -1.396461 7.274613
235 1 10.5963 -4.105029 7.274613
236 1 10.011526 -5.376076 7.274613
237 1 8.397848 -7.65565 7.274613
238 1 7.393407 -8.629622 7.274613
239 1 3.109814 -10.929862 8.487049
240 1 1.743091 -11.229179 8.487049
241 1 -1.048507 -11.315188 8.487049
242 1 -2.431063 -11.100575 8.487049
243 1 -5.06522 -10.172334 8.487049
244 1 -6.276889 -9.472777 8.487049
245 1 -8.397848 -7.65565 8.487049
246 1 -9.274987 -6.565627 8.487049
247 1 -10.5963 -4.105029 8.487049
248 1 -11.020445 -2.771753 8.487049
249 1 -11.363663 0.0 8.487049
250 1 -11.277532 1.396461 8.487049
251 1 -10.5963 4.105029 8.487049
252 1 -10.011526 5.376076 8.487049
253 1 -8.397848 7.65565 8.487049
254 1 -7.393407 8.629622 8.487049
255 1 -5.06522 10.172334 8.487049
256 1 -3.776768 10.717689 8.487049
257 1 -1.048507 11.315188 8.487049
258 1 0.349945 11.358273 8.487049
259 1 3.109814 10.929862 8.487049
260 1 4.429395 10.46486 8.487049
261 1 6.848137 9.068399 8.487049
262 1 7.910632 8.158109 8.487049
263 1 9.661581 5.982198 8.487049
264 1 10.323493 4.74956 8.487049
265 1 11.170175 2.088068 8.487049
266 1 11.34211 0.699557 8.487049
267 1 11.170175 -2.088068 8.487049
268 1 10.828912 -3.444925 8.487049
269 1 9.661581 -5.982198 8.487049
270 1 8.853209 -7.124151 8.487049
271 1 6.848137 -9.068399 8.487049
272 1 5.681831 -9.841221 8.487049
273 1 1.048507 -11.315188 9.699485
274 1 -0.349945 -11.358273 9.699485
275 1 -3.109814 -10.929862 9.699485
276 1 -4.429395 -10.46486 9.699485
277 1 -6.848137 -9.068399 9.699485
278 1 -7.910632 -8.158109 9.699485
279 1 -9.661581 -5.982198 9.699485
280 1 -10.323493 -4.74956 9.699485
281 1 -11.170175 -2.088068 9.699485
282 1 -11.34211 -0.699557 9.699485
283 1 -11.170175 2.088068 9.699485
284 1 -10.828912 3.444925 9.699485
285 1 -9.661581 5.982198 9.699485
286 1 -8.853209 7.124151 9.699485
287 1 -6.848137 9.068399 9.699485
288 1 -5.681831 9.841221 9.699485
289 1 -3.109814 10.929862 9.699485
290 1 -1.743091 11.229179 9.699485
291 1 1.048507 11.315188 9.699485
292 1 2.431063 11.100575 9.699485
293 1 5.06522 10.172334 9.699485
294 1 6.276889 9.472777 9.699485
295 1 8.397848 7.65565 9.699485
296 1 9.274987 6.565627 9.699485
297 1 10.5963 4.105029 9.699485
298 1 11.020445 2.771753 9.699485
299 1 11.363663 0.0 9.699485
300 1 11.277532 -1.396461 9.699485
301 1 10.5963 -4.105029 9.699485
302 1 10.011526 -5.376076 9.699485
303 1 8.397848 -7.65565 9.699485
304 1 7.393407 -8.629622 9.699485
305 1 5.06522 -10.172334 9.699485
306 1 3.776768 -10.717689 9.699485
307 1 -1.048507 -11.315188 10.91192
308 1 -2.431063 -11.100575 10.91192
309 1 -5.06522 -10.172334 10.91192
310 1 -6.276889 -9.472777 10.91192
311 1 -8.397848 -7.65565 10.91192
312 1 -9.274987 -6.565627 10.91192
313 1 -10.5963 -4.105029 10.91192
314 1 -11.020445 -2.771753 10.91192
315 1 -11.363663 0.0 10.91192
316 1 -11.277532 1.396461 10.91192
317 1 -10.5963 4.105029 10.91192
318 1 -10.011526 5.376076 10.91192
319 1 -8.397848 7.65565 10.91192
320 1 -7.393407 8.629622 10.91192
321 1 -5.06522 10.172334 10.91192
322 1 -3.776768 10.717689 10.91192
323 1 -1.048507 11.315188 10.91192
324 1 0.349945 11.358273 10.91192
325 1 3.109814 10.929862 10.91192
326 1 4.429395 10.46486 10.91192
327 1 6.848137 9.068399 10.91192
328 1 7.910632 8.158109 10.91192
329 1 9.661581 5.982198 10.91192
330 1 10.323493 4.74956 10.91192
331 1 11.170175 2.088068 10.91192
332 1 11.34211 0.699557 10.91192
333 1 11.170175 -2.088068 10.91192
334 1 10.828912 -3.444925 10.91192
335 1 9.661581 -5.982198 10.91192
336 1 8.853209 -7.124151 10.91192
337 1 6.848137 -9.068399 10.91192
338 1 5.681831 -9.841221 10.91192
339 1 3.109814 -10.929862 10.91192
340 1 1.743091 -11.229179 10.91192
341 1 -3.109814 -10.929862 12.124356
342 1 -4.429395 -10.46486 12.124356
343 1 -6.848137 -9.068399 12.124356
344 1 -7.910632 -8.158109 12.124356
345 1 -9.661581 -5.982198 12.124356
346 1 -10.323493 -4.74956 12.124356
347 1 -11.170175 -2.088068 12.124356
348 1 -11.34211 -0.699557 12.124356
349 1 -11.170175 2.088068 12.124356
350 1 -10.828912 3.444925 12.124356
351 1 -9.661581 5.982198 12.124356
352 1 -8.853209 7.124151 12.124356
353 1 -6.848137 9.068399 12.124356
354 1 -5.681831 9.841221 12.124356
355 1 -3.109814 10.929862 12.124356
356 1 -1.743091 11.229179 12.124356
357 1 1.048507 11.315188 12.124356
358 1 2.431063 11.100575 12.124356
359 1 5.06522 10.172334 12.124356
360 1 6.276889 9.472777 12.124356
361 1 8.397848 7.65565 12.124356
362 1 9.274987 6.565627 12.124356
363 1 10.5963 4.105029 12.124356
364 1 11.020445 2.771753 12.124356
365 1 11.363663 0.0 12.124356
366 1 11.277532 -1.396461 12.124356
367 1 10.5963 -4.105029 12.124356
368 1 10.011526 -5.376076 12.124356
369 1 8.397848 -7.65565 12.124356
370 1 7.393407 -8.629622 12.124356
371 1 5.06522 -10.172334 12.124356
372 1 3.776768 -10.717689 12.124356
373 1 1.048507 -11.315188 12.124356
374 1 -0.349945 -11.358273 12.124356
375 1 -5.06522 -10.172334 13.336791
376 1 -6.276889 -9.472777 13.336791
377 1 -8.397848 -7.65565 13.336791
378 1 -9.274987 -6.565627 13.336791
379 1 -10.5963 -4.105029 13.336791
380 1 -11.020445 -2.771753 13.336791
381 1 -11.363663 0.0 13.336791
382 1 -11.277532 1.396461 13.336791
383 1 -10.5963 4.105029 13.336791
384 1 -10.011526 5.376076 13.336791
385 1 -8.397848 7.65565 13.336791
386 1 -7.393407 8.629622 13.336791
387 1 -5.06522 10.172334 13.336791
388 1 -3.776768 10.717689 13.336791
389 1 -1.048507 11.315188 13.336791
390 1 0.349945 11.358273 13.336791
391 1 3.109814 10.929862 13.336791
392 1 4.429395 10.46486 13.336791
393 1 6.848137 9.068399 13.336791
394 1 7.910632 8.158109 13.336791
395 1 9.661581 5.982198 13.336791
396 1 10.323493 4.74956 13.336791
397 1 11.170175 2.088068 13.336791
398 1 11.34211 0.699557 13.336791
399 1 11.170175 -2.088068 13.336791
400 1 10.828912 -3.444925 13.336791
401 1 9.661581 -5.982198 13.336791
402 1 8.853209 -7.124151 13.336791
403 1 6.848137 -9.068399 13.336791
404 1 5.681831 -9.841221 13.336791
405 1 3.109814 -10.929862 13.336791
406 1 1.743091 -11.229179 13.336791
407 1 -1.048507 -11.315188 13.336791
408 1 -2.431063 -11.100575 13.336791
409 1 -6.848137 -9.068399 14.549227
410 1 -7.910632 -8.158109 14.549227
411 1 -9.661581 -5.982198 14.549227
412 1 -10.323493 -4.74956 14.549227
413 1 -11.170175 -2.088068 14.549227
414 1 -11.34211 -0.699557 14.549227
415 1 -11.170175 2.088068 14.549227
416 1 -10.828912 3.444925 14.549227
417 1 -9.661581 5.982198 14.549227
418 1 -8.853209 7.124151 14.549227
419 1 -6.848137 9.068399 14.549227
420 1 -5.681831 9.841221 14.549227
421 1 -3.109814 10.929862 14.549227
422 1 -1.743091 11.229179 14.549227
423 1 1.048507 11.315188 14.549227
424 1 2.431063 11.100575 14.549227
425 1 5.06522 10.172334 14.549227
426 1 6.276889 9.472777 14.549227
427 1 8.397848 7.65565 14.549227
428 1 9.274987 6.565627 14.549227
429 1 10.5963 4.105029 14.549227
430 1 11.020445 2.771753 14.549227
431 1 11.363663 0.0 14.549227
432 1 11.277532 -1.396461 14.549227
433 1 10.5963 -4.105029 14.549227
434 1 10.011526 -5.376076 14.549227
435 1 8.397848 -7.65565 14.549227
436 1 7.393407 -8.629622 14.549227
437 1 5.06522 -10.172334 14.549227
438 1 3.776768 -10.717689 14.549227
439 1 1.048507 -11.315188 14.549227
440 1 -0.349945 -11.358273 14.549227
441 1 -3.109814 -10.929862 14.549227
442 1 -4.429395 -10.46486 14.549227
443 1 -8.397848 -7.65565 15.761662
444 1 -9.274987 -6.565627 15.761662
445 1 -10.5963 -4.105029 15.761662
446 1 -11.020445 -2.771753 15.761662
447 1 -11.363663 0.0 15.761662
448 1 -11.277532 1.396461 15.761662
449 1 -10.5963 4.105029 15.761662
450 1 -10.011526 5.376076 15.761662
451 1 -8.397848 7.65565 15.761662
452 1 -7.393407 8.629622 15.761662
453 1 -5.06522 10.172334 15.761662
454 1 -3.776768 10.717689 15.761662
455 1 -1.048507 11.315188 15.761662
456 1 0.349945 11.358273 15.761662
457 1 3.109814 10.929862 15.761662
458 1 4.429395 10.46486 15.761662
459 1 6.848137 9.068399 15.761662
460 1 7.910632 8.158109 15.761662
461 1 9.661581 5.982198 15.761662
462 1 10.323493 4.74956 15.761662
463 1 11.170175 2.088068 15.761662
464 1 11.34211 0.699557 15.761662
465 1 11.170175 -2.088068 15.761662
466 1 10.828912 -3.444925 15.761662
467 1 9.661581 -5.982198 15.761662
468 1 8.853209 -7.124151 15.761662
469 1 6.848137 -9.068399 15.761662
470 1 5.681831 -9.841221 15.761662
471 1 3.109814 -10.929862 15.761662
472 1 1.743091 -11.229179 15.761662
473 1 -1.048507 -11.315188 15.761662
474 1 -2.431063 -11.100575 15.761662
475 1 -5.06522 -10.172334 15.761662
476 1 -6.276889 -9.472777 15.761662
477 1 -9.661581 -5.982198 16.974098
478 1 -10.323493 -4.74956 16.974098
479 1 -11.170175 -2.088068 16.974098
480 1 -11.34211 -0.699557 16.974098
481 1 -11.170175 2.088068 16.974098
482 1 -10.828912 3.444925 16.974098
483 1 -9.661581 5.982198 16.974098
484 1 -8.853209 7.124151 16.974098
485 1 -6.848137 9.068399 16.974098
486 1 -5.681831 9.841221 16.974098
487 1 -3.109814 10.929862 16.974098
488 1 -1.743091 11.229179 16.974098
489 1 1.048507 11.315188 16.974098
490 1 2.431063 11.100575 16.974098
491 1 5.06522 10.172334 16.974098
492 1 6.276889 9.472777 16.974098
493 1 8.397848 7.65565 16.974098
494 1 9.274987 6.565627 16.974098
495 1 10.5963 4.105029 16.974098
496 1 11.020445 2.771753 16.974098
497 1 11.363663 0.0 16.974098
498 1 11.277532 -1.396461 16.974098
499 1 10.5963 -4.105029 16.974098
500 1 10.011526 -5.376076 16.974098
501 1 8.397848 -7.65565 16.974098
502 1 7.393407 -8.629622 16.974098
503 1 5.06522 -10.172334 16.974098
504 1 3.776768 -10.717689 16.974098
505 1 1.048507 -11.315188 16.974098
506 1 -0.349945 -11.358273 16.974098
507 1 -3.109814 -10.929862 16.974098
508 1 -4.429395 -10.46486 16.974098
509 1 -6.848137 -9.068399 16.974098
510 1 -7.910632 -8.158109 16.974098
511 1 -10.5963 -4.105029 18.186533
512 1 -11.020445 -2.771753 18.186533
513 1 -11.363663 0.0 18.186533
514 1 -11.277532 1.396461 18.186533
515 1 -10.5963 4.105029 18.186533
516 1 -10.011526 5.376076 18.186533
517 1 -8.397848 7.65565 18.186533
518 1 -7.393407 8.629622 18.186533
519 1 -5.06522 10.172334 18.186533
520 1 -3.776768 10.717689 18.186533
521 1 -1.048507 11.315188 18.186533
522 1 0.349945 11.358273 18.186533
523 1 3.109814 10.929862 18.186533
524 1 4.429395 10.46486 18.186533
525 1 6.848137 9.068399 18.186533
526 1 7.910632 8.158109 18.186533
527 1 9.661581 5.982198 18.186533
528 1 10.323493 4.74956 18.186533
529 1 11.170175 2.088068 18.186533
530 1 11.34211 0.699557 18.186533
531 1 11.170175 -2.088068 18.186533
532 1 10.828912 -3.444925 18.186533
533 1 9.661581 -5.982198 18.186533
534 1 8.853209 -7.124151 18.186533
535 1 6.848137 -9.068399 18.186533
536 1 5.681831 -9.841221 18.186533
537 1 3.109814 -10.929862 18.186533
538 1 1.743091 -11.229179 18.186533
539 1 -1.048507 -11.315188 18.186533
540 1 -2.431063 -11.100575 18.186533
541 1 -5.06522 -10.172334 18.186533
542 1 -6.276889 -9.472777 18.186533
543 1 -8.397848 -7.65565 18.186533
544 1 -9.274987 -6.565627 18.186533
545 1 -11.170175 -2.088068 19.398969
546 1 -11.34211 -0.699557 19.398969
547 1 -11.170175 2.088068 19.398969
548 1 -10.828912 3.444925 19.398969
549 1 -9.661581 5.982198 19.398969
550 1 -8.853209 7.124151 19.398969
551 1 -6.848137 9.068399 19.398969
552 1 -5.681831 9.841221 19.398969
553 1 -3.109814 10.929862 19.398969
554 1 -1.743091 11.229179 19.398969
555 1 1.048507 11.315188 19.398969
556 1 2.431063 11.100575 19.398969
557 1 5.06522 10.172334 19.398969
558 1 6.276889 9.472777 19.398969
559 1 8.397848 7.65565 19.398969
560 1 9.274987 6.565627 19.398969
561 1 10.5963 4.105029 19.398969
562 1 11.020445 2.771753 19.398969
563 1 11.363663 0.0 19.398969
564 1 11.277532 -1.396461 19.398969
565 1 10.5963 -4.105029 19.398969
566 1 10.011526 -5.376076 19.398969
567 1 8.397848 -7.65565 19.398969
568 1 7.393407 -8.629622 19.398969
569 1 5.06522 -10.172334 19.398969
570 1 3.776768 -10.717689 19.398969
571 1 1.048507 -11.315188 19.398969
572 1 -0.349945 -11.358273 19.398969
573 1 -3.109814 -10.929862 19.398969
574 1 -4.429395 -10.46486 19.398969
575 1 -6.848137 -9.068399 19.398969
576 1 -7.910632 -8.158109 19.398969
577 1 -9.661581 -5.982198 19.398969
578 1 -10.323493 -4.74956 19.398969
579 1 -11.363663 0.0 20.611405
580 1 -11.277532 1.396461 20.611405
581 1 -10.5963 4.105029 20.611405
582 1 -10.011526 5.376076 20.611405
583 1 -8.397848 7.65565 20.611405
584 1 -7.393407 8.629622 20.611405
585 1 -5.06522 10.172334 20.611405
586 1 -3.776768 10.717689 20.611405
587 1 -1.048507 11.315188 20.611405
588 1 0.349945 11.358273 20.611405
589 1 3.109814 10.929862 20.611405
590 1 4.429395 10.46486 20.611405
591 1 6.848137 9.068399 20.611405
592 1 7.910632 8.158109 20.611405
593 1 9.661581 5.982198 20.611405
594 1 10.323493 4.74956 20.611405
595 1 11.170175 2.088068 20.611405
596 1 11.34211 0.699557 20.611405
597 1 11.170175 -2.088068 20.611405
598 1 10.828912 -3.444925 20.611405
599 1 9.661581 -5.982198 20.611405
600 1 8.853209 -7.124151 20.611405
601 1 6.848137 -9.068399 20.611405
602 1 5.681831 -9.841221 20.611405
603 1 3.109814 -10.929862 20.611405
604 1 1.743091 -11.229179 20.611405
605 1 -1.048507 -11.315188 20.611405
606 1 -2.431063 -11.100575 20.611405
607 1 -5.06522 -10.172334 20.611405
608 1 -6.276889 -9.472777 20.611405
609 1 -8.397848 -7.65565 20.611405
610 1 -9.274987 -6.565627 20.611405
611 1 -10.5963 -4.105029 20.611405
612 1 -11.020445 -2.771753 20.611405
613 1 -11.170175 2.088068 21.82384
614 1 -10.828912 3.444925 21.82384
615 1 -9.661581 5.982198 21.82384
616 1 -8.853209 7.124151 21.82384
617 1 -6.848137 9.068399 21.82384
618 1 -5.681831 9.841221 21.82384
619 1 -3.109814 10.929862 21.82384
620 1 -1.743091 11.229179 21.82384
621 1 1.048507 11.315188 21.82384
622 1 2.431063 11.100575 21.82384
623 1 5.06522 10.172334 21.82384
624 1 6.276889 9.472777 21.82384
625 1 8.397848 7.65565 21.82384
626 1 9.274987 6.565627 21.82384
627 1 10.5963 4.105029 21.82384
628 1 11.020445 2.771753 21.82384
629 1 11.363663 0.0 21.82384
630 1 11.277532 -1.396461 21.82384
631 1 10.5963 -4.105029 21.82384
632 1 10.011526 -5.376076 21.82384
633 1 8.397848 -7.65565 21.82384
634 1 7.393407 -8.629622 21.82384
635 1 5.06522 -10.172334 21.82384
636 1 3.776768 -10.717689 21.82384
637 1 1.048507 -11.315188 21.82384
638 1 -0.349945 -11.358273 21.82384
639 1 -3.109814 -10.929862 21.82384
640 1 -4.429395 -10.46486 21.82384
641 1 -6.848137 -9.068399 21.82384
642 1 -7.910632 -8.158109 21.82384
643 1 -9.661581 -5.982198 21.82384
644 1 -10.323493 -4.74956 21.82384
645 1 -11.170175 -2.088068 21.82384
646 1 -11.34211 -0.699557 21.82384
647 1 -10.5963 4.105029 23.036276
648 1 -10.011526 5.376076 23.036276
649 1 -8.397848 7.65565 23.036276
650 1 -7.393407 8.629622 23.036276
651 1 -5.06522 10.172334 23.036276
652 1 -3.776768 10.717689 23.036276
653 1 -1.048507 11.315188 23.036276
654 1 0.349945 11.358273 23.036276
655 1 3.109814 10.929862 23.036276
656 1 4.429395 10.46486 23.036276
657 1 6.848137 9.068399 23.036276
658 1 7.910632 8.158109 23.036276
659 1 9.661581 5.982198 23.036276
660 1 10.323493 4.74956 23.036276
661 1 11.170175 2.088068 23.036276
662 1 11.34211 0.699557 23.036276
663 1 11.170175 -2.088068 23.036276
664 1 10.828912 -3.444925 23.036276
665 1 9.661581 -5.982198 23.036276
666 1 8.853209 -7.124151 23.036276
667 1 6.848137 -9.068399 23.036276
668 1 5.681831 -9.841221 23.036276
669 1 3.109814 -10.929862 23.036276
670 1 1.743091 -11.229179 23.036276
671 1 -1.048507 -11.315188 23.036276
672 1 -2.431063 -11.100575 23.036276
673 1 -5.06522 -10.172334 23.036276
674 1 -6.276889 -9.472777 23.036276
675 1 -8.397848 -7.65565 23.036276
676 1 -9.274987 -6.565627 23.036276
677 1 -10.5963 -4.105029 23.036276
678 1 -11.020445 -2.771753 23.036276
679 1 -11.363663 0.0 23.036276
680 1 -11.277532 1.396461 23.036276
681 1 -9.661581 5.982198 24.248711
682 1 -8.853209 7.124151 24.248711
683 1 -6.848137 9.068399 24.248711
684 1 -5.681831 9.841221 24.248711
685 1 -3.109814 10.929862 24.248711
686 1 -1.743091 11.229179 24.248711
687 1 1.048507 11.315188 24.248711
688 1 2.431063 11.100575 24.248711
689 1 5.06522 10.172334 24.248711
690 1 6.276889 9.472777 24.248711
691 1 8.397848 7.65565 24.248711
692 1 9.274987 6.565627 24.248711
693 1 10.5963 4.105029 24.248711
694 1 11.020445 2.771753 24.248711
695 1 11.363663 0.0 24.248711
696 1 11.277532 -1.396461 24.248711
697 1 10.5963 -4.105029 24.248711
698 1 10.011526 -5.376076 24.248711
699 1 8.397848 -7.65565 24.248711
700 1 7.393407 -8.629622 24.248711
701 1 5.06522 -10.172334 24.248711
702 1 3.776768 -10.717689 24.248711
703 1 1.048507 -11.315188 24.248711
704 1 -0.349945 -11.358273 24.248711
705 1 -3.109814 -10.929862 24.248711
706 1 -4.429395 -10.46486 24.248711
707 1 -6.848137 -9.068399 24.248711
708 1 -7.910632 -8.158109 24.248711
709 1 -9.661581 -5.982198 24.248711
710 1 -10.323493 -4.74956 24.248711
711 1 -11.170175 -2.088068 24.248711
712 1 -11.34211 -0.699557 24.248711
713 1 -11.170175 2.088068 24.248711
714 1 -10.828912 3.444925 24.248711
715 1 -8.397848 7.65565 25.461147
716 1 -7.393407 8.629622 25.461147
717 1 -5.06522 10.172334 25.461147
718 1 -3.776768 10.717689 25.461147
719 1 -1.048507 11.315188 25.461147
720 1 0.349945 11.358273 25.461147
721 1 3.109814 10.929862 25.461147
722 1 4.429395 10.46486 25.461147
723 1 6.848137 9.068399 25.461147
724 1 7.910632 8.158109 25.461147
725 1 9.661581 5.982198 25.461147
726 1 10.323493 4.74956 25.461147
727 1 11.170175 2.088068 25.461147
728 1 11.34211 0.699557 25.461147
729 1 11.170175 -2.088068 25.461147
730 1 10.828912 -3.444925 25.461147
731 1 9.661581 -5.982198 25.461147
732 1 8.853209 -7.124151 25.461147
733 1 6.848137 -9.068399 25.461147
734 1 5.681831 -9.841221 25.461147
735 1 3.109814 -10.929862 25.461147
736 1 1.743091 -11.229179 25.461147
737 1 -1.048507 -11.315188 25.461147
738 1 -2.431063 -11.100575 25.461147
739 1 -5.06522 -10.172334 25.461147
740 1 -6.276889 -9.472777 25.461147
741 1 -8.397848 -7.65565 25.461147
742 1 -9.274987 -6.565627 25.461147
743 1 -10.5963 -4.105029 25.461147
744 1 -11.020445 -2.771753 25.461147
745 1 -11.363663 0.0 25.461147
746 1 -11.277532 1.396461 25.461147
747 1 -10.5963 4.105029 25.461147
748 1 -10.011526 5.376076 25.461147
749 1 -6.848137 9.068399 26.673582
750 1 -5.681831 9.841221 26.673582
751 1 -3.109814 10.929862 26.673582
752 1 -1.743091 11.229179 26.673582
753 1 1.048507 11.315188 26.673582
754 1 2.431063 11.100575 26.673582
755 1 5.06522 10.172334 26.673582
756 1 6.276889 9.472777 26.673582
757 1 8.397848 7.65565 26.673582
758 1 9.274987 6.565627 26.673582
759 1 10.5963 4.105029 26.673582
760 1 11.020445 2.771753 26.673582
761 1 11.363663 0.0 26.673582
762 1 11.277532 -1.396461 26.673582
763 1 10.5963 -4.105029 26.673582
764 1 10.011526 -5.376076 26.673582
765 1 8.397848 -7.65565 26.673582
766 1 7.393407 -8.629622 26.673582
767 1 5.06522 -10.172334 26.673582
768 1 3.776768 -10.717689 26.673582
769 1 1.048507 -11.315188 26.673582
770 1 -0.349945 -11.358273 26.673582
771 1 -3.109814 -10.929862 26.673582
772 1 -4.429395 -10.46486 26.673582
773 1 -6.848137 -9.068399 26.673582
774 1 -7.910632 -8.158109 26.673582
775 1 -9.661581 -5.982198 26.673582
776 1 -10.323493 -4.74956 26.673582
777 1 -11.170175 -2.088068 26.673582
778 1 -11.34211 -0.699557 26.673582
779 1 -11.170175 2.088068 26.673582
780 1 -10.828912 3.444925 26.673582
781 1 -9.661581 5.982198 26.673582
782 1 -8.853209 7.124151 26.673582
783 1 -5.06522 10.172334 27.886018
784 1 -3.776768 10.717689 27.886018
785 1 -1.048507 11.315188 27.886018
786 1 0.349945 11.358273 27.886018
787 1 3.109814 10.929862 27.886018
788 1 4.429395 10.46486 27.886018
789 1 6.848137 9.068399 27.886018
790 1 7.910632 8.158109 27.886018
791 1 9.661581 5.982198 27.886018
792 1 10.323493 4.74956 27.886018
793 1 11.170175 2.088068 27.886018
794 1 11.34211 0.699557 27.886018
795 1 11.170175 -2.088068 27.886018
796 1 10.828912 -3.444925 27.886018
797 1 9.661581 -5.982198 27.886018
798 1 8.853209 -7.124151 27.886018
799 1 6.848137 -9.068399 27.886018
800 1 5.681831 -9.841221 27.886018
801 1 3.109814 -10.929862 27.886018
802 1 1.743091 -11.229179 27.886018
803 1 -1.048507 -11.315188 27.886018
804 1 -2.431063 -11.100575 27.886018
805 1 -5.06522 -10.172334 27.886018
806 1 -6.276889 -9.472777 27.886018
807 1 -8.397848 -7.65565 27.886018
808 1 -9.274987 -6.565627 27.886018
809 1 -10.5963 -4.105029 27.886018
810 1 -11.020445 -2.771753 27.886018
811 1 -11.363663 0.0 27.886018
812 1 -11.277532 1.396461 27.886018
813 1 -10.5963 4.105029 27.886018
814 1 -10.011526 5.376076 27.886018
815 1 -8.397848 7.65565 27.886018
816 1 -7.393407 8.629622 27.886018
817 1 -3.109814 10.929862 29.098454
818 1 -1.743091 11.229179 29.098454
819 1 1.048507 11.315188 29.098454
820 1 2.431063 11.100575 29.098454
821 1 5.06522 10.172334 29.098454
822 1 6.276889 9.472777 29.098454
823 1 8.397848 7.65565 29.098454
824 1 9.274987 6.565627 29.098454
825 1 10.5963 4.105029 29.098454
826 1 11.020445 2.771753 29.098454
827 1 11.363663 0.0 29.098454
828 1 11.277532 -1.396461 29.098454
829 1 10.5963 -4.105029 29.098454
830 1 10.011526 -5.376076 29.098454
831 1 8.397848 -7.65565 29.098454
832 1 7.393407 -8.629622 29.098454
833 1 5.06522 -10.172334 29.098454
834 1 3.776768 -10.717689 29.098454
835 1 1.048507 -11.315188 29.098454
836 1 -0.349945 -11.358273 29.098454
837 1 -3.109814 -10.929862 29.098454
838 1 -4.429395 -10.46486 29.098454
839 1 -6.848137 -9.068399 29.098454
840 1 -7.910632 -8.158109 29.098454
841 1 -9.661581 -5.982198 29.098454
842 1 -10.323493 -4.74956 29.098454
843 1 -11.170175 -2.088068 29.098454
844 1 -11.34211 -0.699557 29.098454
845 1 -11.170175 2.088068 29.098454
846 1 -10.828912 3.444925 29.098454
847 1 -9.661581 5.982198 29.098454
848 1 -8.853209 7.124151 29.098454
849 1 -6.848137 9.068399 29.098454
850 1 -5.681831 9.841221 29.098454
851 1 -1.048507 11.315188 30.310889
852 1 0.349945 11.358273 30.310889
853 1 3.109814 10.929862 30.310889
854 1 4.429395 10.46486 30.310889
855 1 6.848137 9.068399 30.310889
856 1 7.910632 8.158109 30.310889
857 1 9.661581 5.982198 30.310889
858 1 10.323493 4.74956 30.310889
859 1 11.170175 2.088068 30.310889
860 1 11.34211 0.699557 30.310889
861 1 11.170175 -2.088068 30.310889
862 1 10.828912 -3.444925 30.310889
863 1 9.661581 -5.982198 30.310889
864 1 8.853209 -7.124151 30.310889
865 1 6.848137 -9.068399 30.310889