# LAMMPS data file written by OVITO Basic 3.3.5
1500 atoms
3 atom types
-10.026761 10.026761 xlo xhi
-10.020653 10.020653 ylo yhi
-2.331251 43.7413 zlo zhi

Masses

1 12.0107  # CNT
2 12.0107  # C0
3 12.0107  # C60

Atoms  # atomic

1 2 -1.231238 0.584815 2.595833
2 2 -0.359938 0.170815 1.600233
3 2 -2.119138 -0.315585 3.176333
4 2 -0.385938 -1.149185 1.173833
5 2 -0.294338 -1.439285 -0.184567
6 2 -0.247438 1.204815 0.676633
7 2 -0.154938 0.909115 -0.677467
8 2 -0.178538 -0.408085 -1.112267
9 2 -3.837038 1.346915 3.135533
10 2 -2.961438 2.256015 2.562633
11 2 -3.427338 0.057515 3.446333
12 2 -1.653538 1.873215 2.291433
13 2 -1.045838 2.261815 1.107433
14 2 -3.661038 3.021015 1.641033
15 2 -3.060338 3.399615 0.445733
16 2 -1.746138 3.022015 0.179133
17 2 -5.488038 -0.828285 2.603933
18 2 -5.908838 0.460615 2.293833
19 2 -4.242638 -1.030985 3.182233
20 2 -5.085138 1.547515 2.559633
21 2 -4.982038 2.580015 1.640333
22 2 -6.629138 0.400315 1.109133
23 2 -6.520438 1.435215 0.183033
24 2 -5.692438 2.523315 0.448333
25 2 -3.888538 -2.919085 1.744933
26 2 -5.140738 -2.718185 1.172133
27 2 -3.437038 -2.074185 2.753733
28 2 -5.946338 -1.670785 1.602633
29 2 -6.657938 -0.919885 0.678533
30 2 -5.052038 -3.011885 -0.181267
31 2 -5.751938 -2.249685 -1.108567
32 2 -6.562038 -1.200685 -0.679367
33 2 -1.261338 -2.061085 1.744233
34 2 -1.708238 -2.906685 0.737733
35 2 -2.119238 -1.642385 2.751933
36 2 -3.029938 -3.338485 0.738633
37 2 -3.741738 -3.396185 -0.450967
38 2 -1.108838 -2.530785 -0.455567
39 2 -1.818738 -2.577585 -1.649567
40 2 -3.141738 -3.011185 -1.644667
41 2 -5.580538 -0.584085 -2.589467
42 2 -5.145738 -1.875185 -2.299867
43 2 -3.836238 -2.252685 -2.576067
44 2 -4.679238 0.313115 -3.158667
45 2 -5.550338 2.048715 -1.729367
46 2 -6.446238 1.147715 -1.172667
47 2 -6.463338 -0.168685 -1.602267
48 2 -4.663838 1.634915 -2.718667
49 2 -2.893838 2.930315 -1.733367
50 2 -3.776538 3.350315 -0.742867
51 2 -5.092038 2.912815 -0.740667
52 2 -3.345638 2.067215 -2.727067
53 2 -1.300138 0.828215 -2.596667
54 2 -0.846038 1.686515 -1.602267
55 2 -1.638838 2.739415 -1.173967
56 2 -2.555738 1.014815 -3.170167
57 2 -2.951638 -1.355285 -3.157667
58 2 -1.699438 -1.554285 -2.582367
59 2 -0.879338 -0.468085 -2.308667
60 2 -3.375938 -0.070285 -3.450067
61 3 5.568762 0.584815 10.327318
62 3 6.440062 0.170815 9.331718
63 3 4.680862 -0.315585 10.907818
64 3 6.414062 -1.149185 8.905318
65 3 6.505662 -1.439285 7.546918
66 3 6.552562 1.204815 8.408118
67 3 6.645062 0.909115 7.054018
68 3 6.621462 -0.408085 6.619218
69 3 2.962962 1.346915 10.867018
70 3 3.838562 2.256015 10.294118
71 3 3.372662 0.057515 11.177818
72 3 5.146462 1.873215 10.022918
73 3 5.754162 2.261815 8.838918
74 3 3.138962 3.021015 9.372518
75 3 3.739662 3.399615 8.177218
76 3 5.053862 3.022015 7.910618
77 3 1.311962 -0.828285 10.335418
78 3 0.891162 0.460615 10.025318
79 3 2.557362 -1.030985 10.913718
80 3 1.714862 1.547515 10.291118
81 3 1.817962 2.580015 9.371818
82 3 0.170862 0.400315 8.840618
83 3 0.279562 1.435215 7.914518
84 3 1.107562 2.523315 8.179818
85 3 2.911462 -2.919085 9.476418
86 3 1.659262 -2.718185 8.903618
87 3 3.362962 -2.074185 10.485218
88 3 0.853662 -1.670785 9.334118
89 3 0.142062 -0.919885 8.410018
90 3 1.747962 -3.011885 7.550218
91 3 1.048062 -2.249685 6.622918
92 3 0.237962 -1.200685 7.052118
93 3 5.538662 -2.061085 9.475718
94 3 5.091762 -2.906685 8.469218
95 3 4.680762 -1.642385 10.483418
96 3 3.770062 -3.338485 8.470118
97 3 3.058262 -3.396185 7.280518
98 3 5.691162 -2.530785 7.275918
99 3 4.981262 -2.577585 6.081918
100 3 3.658262 -3.011185 6.086818
101 3 1.219462 -0.584085 5.142018
102 3 1.654262 -1.875185 5.431618
103 3 2.963762 -2.252685 5.155418
104 3 2.120762 0.313115 4.572818
105 3 1.249662 2.048715 6.002118
106 3 0.353762 1.147715 6.558818
107 3 0.336662 -0.168685 6.129218
108 3 2.136162 1.634915 5.012818
109 3 3.906162 2.930315 5.998118
110 3 3.023462 3.350315 6.988618
111 3 1.707962 2.912815 6.990818
112 3 3.454362 2.067215 5.004418
113 3 5.499862 0.828215 5.134818
114 3 5.953962 1.686515 6.129218
115 3 5.161162 2.739415 6.557518
116 3 4.244262 1.014815 4.561318
117 3 3.848362 -1.355285 4.573818
118 3 5.100562 -1.554285 5.149118
119 3 5.920662 -0.468085 5.422818
120 3 3.424062 -0.070285 4.281418
121 2 -1.231238 0.584815 18.058802
122 2 -0.359938 0.170815 17.063202
123 2 -2.119138 -0.315585 18.639302
124 2 -0.385938 -1.149185 16.636802
125 2 -0.294338 -1.439285 15.278402
126 2 -0.247438 1.204815 16.139602
127 2 -0.154938 0.909115 14.785502
128 2 -0.178538 -0.408085 14.350702
129 2 -3.837038 1.346915 18.598502
130 2 -2.961438 2.256015 18.025602
131 2 -3.427338 0.057515 18.909302
132 2 -1.653538 1.873215 17.754402
133 2 -1.045838 2.261815 16.570402
134 2 -3.661038 3.021015 17.104002
135 2 -3.060338 3.399615 15.908702
136 2 -1.746138 3.022015 15.642102
137 2 -5.488038 -0.828285 18.066902
138 2 -5.908838 0.460615 17.756802
139 2 -4.242638 -1.030985 18.645202
140 2 -5.085138 1.547515 18.022602
141 2 -4.982038 2.580015 17.103302
142 2 -6.629138 0.400315 16.572102
143 2 -6.520438 1.435215 15.646002
144 2 -5.692438 2.523315 15.911302
145 2 -3.888538 -2.919085 17.207902
146 2 -5.140738 -2.718185 16.635102
147 2 -3.437038 -2.074185 18.216702
148 2 -5.946338 -1.670785 17.065602
149 2 -6.657938 -0.919885 16.141502
150 2 -5.052038 -3.011885 15.281702
151 2 -5.751938 -2.249685 14.354402
152 2 -6.562038 -1.200685 14.783602
153 2 -1.261338 -2.061085 17.207202
154 2 -1.708238 -2.906685 16.200702
155 2 -2.119238 -1.642385 18.214902
156 2 -3.029938 -3.338485 16.201602
157 2 -3.741738 -3.396185 15.012002
158 2 -1.108838 -2.530785 15.007402
159 2 -1.818738 -2.577585 13.813402
160 2 -3.141738 -3.011185 13.818302
161 2 -5.580538 -0.584085 12.873502
162 2 -5.145738 -1.875185 13.163102
163 2 -3.836238 -2.252685 12.886902
164 2 -4.679238 0.313115 12.304302
165 2 -5.550338 2.048715 13.733602
166 2 -6.446238 1.147715 14.290302
167 2 -6.463338 -0.168685 13.860702
168 2 -4.663838 1.634915 12.744302
169 2 -2.893838 2.930315 13.729602
170 2 -3.776538 3.350315 14.720102
171 2 -5.092038 2.912815 14.722302
172 2 -3.345638 2.067215 12.735902
173 2 -1.300138 0.828215 12.866302
174 2 -0.846038 1.686515 13.860702
175 2 -1.638838 2.739415 14.289002
176 2 -2.555738 1.014815 12.292802
177 2 -2.951638 -1.355285 12.305302
178 2 -1.699438 -1.554285 12.880602
179 2 -0.879338 -0.468085 13.154302
180 2 -3.375938 -0.070285 12.012902
181 3 5.568762 0.584815 25.790287
182 3 6.440062 0.170815 24.794687
183 3 4.680862 -0.315585 26.370787
184 3 6.414062 -1.149185 24.368287
185 3 6.505662 -1.439285 23.009887
186 3 6.552562 1.204815 23.871087
187 3 6.645062 0.909115 22.516987
188 3 6.621462 -0.408085 22.082187
189 3 2.962962 1.346915 26.329987
190 3 3.838562 2.256015 25.757087
191 3 3.372662 0.057515 26.640787
192 3 5.146462 1.873215 25.485887
193 3 5.754162 2.261815 24.301887
194 3 3.138962 3.021015 24.835487
195 3 3.739662 3.399615 23.640187
196 3 5.053862 3.022015 23.373587
197 3 1.311962 -0.828285 25.798387
198 3 0.891162 0.460615 25.488287
199 3 2.557362 -1.030985 26.376687
200 3 1.714862 1.547515 25.754087
201 3 1.817962 2.580015 24.834787
202 3 0.170862 0.400315 24.303587
203 3 0.279562 1.435215 23.377487
204 3 1.107562 2.523315 23.642787
205 3 2.911462 -2.919085 24.939387
206 3 1.659262 -2.718185 24.366587
207 3 3.362962 -2.074185 25.948187
208 3 0.853662 -1.670785 24.797087
209 3 0.142062 -0.919885 23.872987
210 3 1.747962 -3.011885 23.013187
211 3 1.048062 -2.249685 22.085887
212 3 0.237962 -1.200685 22.515087
213 3 5.538662 -2.061085 24.938687
214 3 5.091762 -2.906685 23.932187
215 3 4.680762 -1.642385 25.946387
216 3 3.770062 -3.338485 23.933087
217 3 3.058262 -3.396185 22.743487
218 3 5.691162 -2.530785 22.738887
219 3 4.981262 -2.577585 21.544887
220 3 3.658262 -3.011185 21.549787
221 3 1.219462 -0.584085 20.604987
222 3 1.654262 -1.875185 20.894587
223 3 2.963762 -2.252685 20.618387
224 3 2.120762 0.313115 20.035787
225 3 1.249662 2.048715 21.465087
226 3 0.353762 1.147715 22.021787
227 3 0.336662 -0.168685 21.592187
228 3 2.136162 1.634915 20.475787
229 3 3.906162 2.930315 21.461087
230 3 3.023462 3.350315 22.451587
231 3 1.707962 2.912815 22.453787
232 3 3.454362 2.067215 20.467387
233 3 5.499862 0.828215 20.597787
234 3 5.953962 1.686515 21.592187
235 3 5.161162 2.739415 22.020487
236 3 4.244262 1.014815 20.024287
237 3 3.848362 -1.355285 20.036787
238 3 5.100562 -1.554285 20.612087
239 3 5.920662 -0.468085 20.885787
240 3 3.424062 -0.070285 19.744387
241 2 -1.231238 0.584815 33.521771
242 2 -0.359938 0.170815 32.526171
243 2 -2.119138 -0.315585 34.102271
244 2 -0.385938 -1.149185 32.099771
245 2 -0.294338 -1.439285 30.741371
246 2 -0.247438 1.204815 31.602571
247 2 -0.154938 0.909115 30.248471
248 2 -0.178538 -0.408085 29.813671
249 2 -3.837038 1.346915 34.061471
250 2 -2.961438 2.256015 33.488571
251 2 -3.427338 0.057515 34.372271
252 2 -1.653538 1.873215 33.217371
253 2 -1.045838 2.261815 32.033371
254 2 -3.661038 3.021015 32.566971
255 2 -3.060338 3.399615 31.371671
256 2 -1.746138 3.022015 31.105071
257 2 -5.488038 -0.828285 33.529871
258 2 -5.908838 0.460615 33.219771
259 2 -4.242638 -1.030985 34.108171
260 2 -5.085138 1.547515 33.485571
261 2 -4.982038 2.580015 32.566271
262 2 -6.629138 0.400315 32.035071
263 2 -6.520438 1.435215 31.108971
264 2 -5.692438 2.523315 31.374271
265 2 -3.888538 -2.919085 32.670871
266 2 -5.140738 -2.718185 32.098071
267 2 -3.437038 -2.074185 33.679671
268 2 -5.946338 -1.670785 32.528571
269 2 -6.657938 -0.919885 31.604471
270 2 -5.052038 -3.011885 30.744671
271 2 -5.751938 -2.249685 29.817371
272 2 -6.562038 -1.200685 30.246571
273 2 -1.261338 -2.061085 32.670171
274 2 -1.708238 -2.906685 31.663671
275 2 -2.119238 -1.642385 33.677871
276 2 -3.029938 -3.338485 31.664571
277 2 -3.741738 -3.396185 30.474971
278 2 -1.108838 -2.530785 30.470371
279 2 -1.818738 -2.577585 29.276371
280 2 -3.141738 -3.011185 29.281271
281 2 -5.580538 -0.584085 28.336471
282 2 -5.145738 -1.875185 28.626071
283 2 -3.836238 -2.252685 28.349871
284 2 -4.679238 0.313115 27.767271
285 2 -5.550338 2.048715 29.196571
286 2 -6.446238 1.147715 29.753271
287 2 -6.463338 -0.168685 29.323671
288 2 -4.663838 1.634915 28.207271
289 2 -2.893838 2.930315 29.192571
290 2 -3.776538 3.350315 30.183071
291 2 -5.092038 2.912815 30.185271
292 2 -3.345638 2.067215 28.198871
293 2 -1.300138 0.828215 28.329271
294 2 -0.846038 1.686515 29.323671
295 2 -1.638838 2.739415 29.751971
296 2 -2.555738 1.014815 27.755771
297 2 -2.951638 -1.355285 27.768271
298 2 -1.699438 -1.554285 28.343571
299 2 -0.879338 -0.468085 28.617271
300 2 -3.375938 -0.070285 27.475871
301 3 5.568762 0.584815 41.253256
302 3 6.440062 0.170815 40.257656
303 3 4.680862 -0.315585 41.833756
304 3 6.414062 -1.149185 39.831256
305 3 6.505662 -1.439285 38.472856
306 3 6.552562 1.204815 39.334056
307 3 6.645062 0.909115 37.979956
308 3 6.621462 -0.408085 37.545156
309 3 2.962962 1.346915 41.792956
310 3 3.838562 2.256015 41.220056
311 3 3.372662 0.057515 42.103756
312 3 5.146462 1.873215 40.948856
313 3 5.754162 2.261815 39.764856
314 3 3.138962 3.021015 40.298456
315 3 3.739662 3.399615 39.103156
316 3 5.053862 3.022015 38.836556
317 3 1.311962 -0.828285 41.261356
318 3 0.891162 0.460615 40.951256
319 3 2.557362 -1.030985 41.839656
320 3 1.714862 1.547515 41.217056
321 3 1.817962 2.580015 40.297756
322 3 0.170862 0.400315 39.766556
323 3 0.279562 1.435215 38.840456
324 3 1.107562 2.523315 39.105756
325 3 2.911462 -2.919085 40.402356
326 3 1.659262 -2.718185 39.829556
327 3 3.362962 -2.074185 41.411156
328 3 0.853662 -1.670785 40.260056
329 3 0.142062 -0.919885 39.335956
330 3 1.747962 -3.011885 38.476156
331 3 1.048062 -2.249685 37.548856
332 3 0.237962 -1.200685 37.978056
333 3 5.538662 -2.061085 40.401656
334 3 5.091762 -2.906685 39.395156
335 3 4.680762 -1.642385 41.409356
336 3 3.770062 -3.338485 39.396056
337 3 3.058262 -3.396185 38.206456
338 3 5.691162 -2.530785 38.201856
339 3 4.981262 -2.577585 37.007856
340 3 3.658262 -3.011185 37.012756
341 3 1.219462 -0.584085 36.067956
342 3 1.654262 -1.875185 36.357556
343 3 2.963762 -2.252685 36.081356
344 3 2.120762 0.313115 35.498756
345 3 1.249662 2.048715 36.928056
346 3 0.353762 1.147715 37.484756
347 3 0.336662 -0.168685 37.055156
348 3 2.136162 1.634915 35.938756
349 3 3.906162 2.930315 36.924056
350 3 3.023462 3.350315 37.914556
351 3 1.707962 2.912815 37.916756
352 3 3.454362 2.067215 35.930356
353 3 5.499862 0.828215 36.060756
354 3 5.953962 1.686515 37.055156
355 3 5.161162 2.739415 37.483456
356 3 4.244262 1.014815 35.487256
357 3 3.848362 -1.355285 35.499756
358 3 5.100562 -1.554285 36.075056
359 3 5.920662 -0.468085 36.348756
360 3 3.424062 -0.070285 35.207356
361 1 10.026761 0.0 0.0
362 1 9.929182 -1.395455 0.0
363 1 9.159902 -4.078251 0.0
364 1 8.503176 -5.313374 0.0
365 1 6.709213 -7.451336 0.0
366 1 5.606894 -8.312562 0.0
367 1 3.09844 -9.536017 0.0
368 1 1.741129 -9.874432 0.0
369 1 -1.048082 -9.971834 0.0
370 1 -2.425693 -9.728924 0.0
371 1 -5.013381 -8.68343 0.0
372 1 -6.173091 -7.901196 0.0
373 1 -8.11182 -5.893582 0.0
374 1 -8.853105 -4.707279 0.0
375 1 -9.807653 -2.084681 0.0
376 1 -10.002337 -0.699432 0.0
377 1 -9.807653 2.084681 0.0
378 1 -9.422074 3.429354 0.0
379 1 -8.11182 5.893582 0.0
380 1 -7.212649 6.965174 0.0
381 1 -5.013381 8.68343 0.0
382 1 -3.756091 9.296651 0.0
383 1 -1.048082 9.971834 0.0
384 1 0.349929 10.020653 0.0
385 1 3.09844 9.536017 0.0
386 1 4.395443 9.011993 0.0
387 1 6.709213 7.451336 0.0
388 1 7.680945 6.445078 0.0
389 1 9.159902 4.078251 0.0
390 1 9.638342 2.76375 0.0
391 1 9.807653 -2.084681 1.212436
392 1 9.422074 -3.429354 1.212436
393 1 8.11182 -5.893582 1.212436
394 1 7.212649 -6.965174 1.212436
395 1 5.013381 -8.68343 1.212436
396 1 3.756091 -9.296651 1.212436
397 1 1.048082 -9.971834 1.212436
398 1 -0.349929 -10.020653 1.212436
399 1 -3.09844 -9.536017 1.212436
400 1 -4.395443 -9.011993 1.212436
401 1 -6.709213 -7.451336 1.212436
402 1 -7.680945 -6.445078 1.212436
403 1 -9.159902 -4.078251 1.212436
404 1 -9.638342 -2.76375 1.212436
405 1 -10.026761 0.0 1.212436
406 1 -9.929182 1.395455 1.212436
407 1 -9.159902 4.078251 1.212436
408 1 -8.503176 5.313374 1.212436
409 1 -6.709213 7.451336 1.212436
410 1 -5.606894 8.312562 1.212436
411 1 -3.09844 9.536017 1.212436
412 1 -1.741129 9.874432 1.212436
413 1 1.048082 9.971834 1.212436
414 1 2.425693 9.728924 1.212436
415 1 5.013381 8.68343 1.212436
416 1 6.173091 7.901196 1.212436
417 1 8.11182 5.893582 1.212436
418 1 8.853105 4.707279 1.212436
419 1 9.807653 2.084681 1.212436
420 1 10.002337 0.699432 1.212436
421 1 9.159902 -4.078251 2.424871
422 1 8.503176 -5.313374 2.424871
423 1 6.709213 -7.451336 2.424871
424 1 5.606894 -8.312562 2.424871
425 1 3.09844 -9.536017 2.424871
426 1 1.741129 -9.874432 2.424871
427 1 -1.048082 -9.971834 2.424871
428 1 -2.425693 -9.728924 2.424871
429 1 -5.013381 -8.68343 2.424871
430 1 -6.173091 -7.901196 2.424871
431 1 -8.11182 -5.893582 2.424871
432 1 -8.853105 -4.707279 2.424871
433 1 -9.807653 -2.084681 2.424871
434 1 -10.002337 -0.699432 2.424871
435 1 -9.807653 2.084681 2.424871
436 1 -9.422074 3.429354 2.424871
437 1 -8.11182 5.893582 2.424871
438 1 -7.212649 6.965174 2.424871
439 1 -5.013381 8.68343 2.424871
440 1 -3.756091 9.296651 2.424871
441 1 -1.048082 9.971834 2.424871
442 1 0.349929 10.020653 2.424871
443 1 3.09844 9.536017 2.424871
444 1 4.395443 9.011993 2.424871
445 1 6.709213 7.451336 2.424871
446 1 7.680945 6.445078 2.424871
447 1 9.159902 4.078251 2.424871
448 1 9.638342 2.76375 2.424871
449 1 10.026761 0.0 2.424871
450 1 9.929182 -1.395455 2.424871
451 1 8.11182 -5.893582 3.637307
452 1 7.212649 -6.965174 3.637307
453 1 5.013381 -8.68343 3.637307
454 1 3.756091 -9.296651 3.637307
455 1 1.048082 -9.971834 3.637307
456 1 -0.349929 -10.020653 3.637307
457 1 -3.09844 -9.536017 3.637307
458 1 -4.395443 -9.011993 3.637307
459 1 -6.709213 -7.451336 3.637307
460 1 -7.680945 -6.445078 3.637307
461 1 -9.159902 -4.078251 3.637307
462 1 -9.638342 -2.76375 3.637307
463 1 -10.026761 0.0 3.637307
464 1 -9.929182 1.395455 3.637307
465 1 -9.159902 4.078251 3.637307
466 1 -8.503176 5.313374 3.637307
467 1 -6.709213 7.451336 3.637307
468 1 -5.606894 8.312562 3.637307
469 1 -3.09844 9.536017 3.637307
470 1 -1.741129 9.874432 3.637307
471 1 1.048082 9.971834 3.637307
472 1 2.425693 9.728924 3.637307
473 1 5.013381 8.68343 3.637307
474 1 6.173091 7.901196 3.637307
475 1 8.11182 5.893582 3.637307
476 1 8.853105 4.707279 3.637307
477 1 9.807653 2.084681 3.637307
478 1 10.002337 0.699432 3.637307
479 1 9.807653 -2.084681 3.637307
480 1 9.422074 -3.429354 3.637307
481 1 6.709213 -7.451336 4.849742
482 1 5.606894 -8.312562 4.849742
483 1 3.09844 -9.536017 4.849742
484 1 1.741129 -9.874432 4.849742
485 1 -1.048082 -9.971834 4.849742
486 1 -2.425693 -9.728924 4.849742
487 1 -5.013381 -8.68343 4.849742
488 1 -6.173091 -7.901196 4.849742
489 1 -8.11182 -5.893582 4.849742
490 1 -8.853105 -4.707279 4.849742
491 1 -9.807653 -2.084681 4.849742
492 1 -10.002337 -0.699432 4.849742
493 1 -9.807653 2.084681 4.849742
494 1 -9.422074 3.429354 4.849742
495 1 -8.11182 5.893582 4.849742
496 1 -7.212649 6.965174 4.849742
497 1 -5.013381 8.68343 4.849742
498 1 -3.756091 9.296651 4.849742
499 1 -1.048082 9.971834 4.849742
500 1 0.349929 10.020653 4.849742
501 1 3.09844 9.536017 4.849742
502 1 4.395443 9.011993 4.849742
503 1 6.709213 7.451336 4.849742
504 1 7.680945 6.445078 4.849742
505 1 9.159902 4.078251 4.849742
506 1 9.638342 2.76375 4.849742
507 1 10.026761 0.0 4.849742
508 1 9.929182 -1.395455 4.849742
509 1 9.159902 -4.078251 4.849742
510 1 8.503176 -5.313374 4.849742
511 1 5.013381 -8.68343 6.062178
512 1 3.756091 -9.296651 6.062178
513 1 1.048082 -9.971834 6.062178
514 1 -0.349929 -10.020653 6.062178
515 1 -3.09844 -9.536017 6.062178
516 1 -4.395443 -9.011993 6.062178
517 1 -6.709213 -7.451336 6.062178
518 1 -7.680945 -6.445078 6.062178
519 1 -9.159902 -4.078251 6.062178
520 1 -9.638342 -2.76375 6.062178
521 1 -10.026761 0.0 6.062178
522 1 -9.929182 1.395455 6.062178
523 1 -9.159902 4.078251 6.062178
524 1 -8.503176 5.313374 6.062178
525 1 -6.709213 7.451336 6.062178
526 1 -5.606894 8.312562 6.062178
527 1 -3.09844 9.536017 6.062178
528 1 -1.741129 9.874432 6.062178
529 1 1.048082 9.971834 6.062178
530 1 2.425693 9.728924 6.062178
531 1 5.013381 8.68343 6.062178
532 1 6.173091 7.901196 6.062178
533 1 8.11182 5.893582 6.062178
534 1 8.853105 4.707279 6.062178
535 1 9.807653 2.084681 6.062178
536 1 10.002337 0.699432 6.062178
537 1 9.807653 -2.084681 6.062178
538 1 9.422074 -3.429354 6.062178
539 1 8.11182 -5.893582 6.062178
540 1 7.212649 -6.965174 6.062178
541 1 3.09844 -9.536017 7.274613
542 1 1.741129 -9.874432 7.274613
543 1 -1.048082 -9.971834 7.274613
544 1 -2.425693 -9.728924 7.274613
545 1 -5.013381 -8.68343 7.274613
546 1 -6.173091 -7.901196 7.274613
547 1 -8.11182 -5.893582 7.274613
548 1 -8.853105 -4.707279 7.274613
549 1 -9.807653 -2.084681 7.274613
550 1 -10.002337 -0.699432 7.274613
551 1 -9.807653 2.084681 7.274613
552 1 -9.422074 3.429354 7.274613
553 1 -8.11182 5.893582 7.274613
554 1 -7.212649 6.965174 7.274613
555 1 -5.013381 8.68343 7.274613
556 1 -3.756091 9.296651 7.274613
557 1 -1.048082 9.971834 7.274613
558 1 0.349929 10.020653 7.274613
559 1 3.09844 9.536017 7.274613
560 1 4.395443 9.011993 7.274613
561 1 6.709213 7.451336 7.274613
562 1 7.680945 6.445078 7.274613
563 1 9.159902 4.078251 7.274613
564 1 9.638342 2.76375 7.274613
565 1 10.026761 0.0 7.274613
566 1 9.929182 -1.395455 7.274613
567 1 9.159902 -4.078251 7.274613
568 1 8.503176 -5.313374 7.274613
569 1 6.709213 -7.451336 7.274613
570 1 5.606894 -8.312562 7.274613
571 1 1.048082 -9.971834 8.487049
572 1 -0.349929 -10.020653 8.487049
573 1 -3.09844 -9.536017 8.487049
574 1 -4.395443 -9.011993 8.487049
575 1 -6.709213 -7.451336 8.487049
576 1 -7.680945 -6.445078 8.487049
577 1 -9.159902 -4.078251 8.487049
578 1 -9.638342 -2.76375 8.487049
579 1 -10.026761 0.0 8.487049
580 1 -9.929182 1.395455 8.487049
581 1 -9.159902 4.078251 8.487049
582 1 -8.503176 5.313374 8.487049
583 1 -6.709213 7.451336 8.487049
584 1 -5.606894 8.312562 8.487049
585 1 -3.09844 9.536017 8.487049
586 1 -1.741129 9.874432 8.487049
587 1 1.048082 9.971834 8.487049
588 1 2.425693 9.728924 8.487049
589 1 5.013381 8.68343 8.487049
590 1 6.173091 7.901196 8.487049
591 1 8.11182 5.893582 8.487049
592 1 8.853105 4.707279 8.487049
593 1 9.807653 2.084681 8.487049
594 1 10.002337 0.699432 8.487049
595 1 9.807653 -2.084681 8.487049
596 1 9.422074 -3.429354 8.487049
597 1 8.11182 -5.893582 8.487049
598 1 7.212649 -6.965174 8.487049
599 1 5.013381 -8.68343 8.487049
600 1 3.756091 -9.296651 8.487049
601 1 -1.048082 -9.971834 9.699485
602 1 -2.425693 -9.728924 9.699485
603 1 -5.013381 -8.68343 9.699485
604 1 -6.173091 -7.901196 9.699485
605 1 -8.11182 -5.893582 9.699485
606 1 -8.853105 -4.707279 9.699485
607 1 -9.807653 -2.084681 9.699485
608 1 -10.002337 -0.699432 9.699485
609 1 -9.807653 2.084681 9.699485
610 1 -9.422074 3.429354 9.699485
611 1 -8.11182 5.893582 9.699485
612 1 -7.212649 6.965174 9.699485
613 1 -5.013381 8.68343 9.699485
614 1 -3.756091 9.296651 9.699485
615 1 -1.048082 9.971834 9.699485
616 1 0.349929 10.020653 9.699485
617 1 3.09844 9.536017 9.699485
618 1 4.395443 9.011993 9.699485
619 1 6.709213 7.451336 9.699485
620 1 7.680945 6.445078 9.699485
621 1 9.159902 4.078251 9.699485
622 1 9.638342 2.76375 9.699485
623 1 10.026761 0.0 9.699485
624 1 9.929182 -1.395455 9.699485
625 1 9.159902 -4.078251 9.699485
626 1 8.503176 -5.313374 9.699485
627 1 6.709213 -7.451336 9.699485
628 1 5.606894 -8.312562 9.699485
629 1 3.09844 -9.536017 9.699485
630 1 1.741129 -9.874432 9.699485
631 1 -3.09844 -9.536017 10.91192
632 1 -4.395443 -9.011993 10.91192
633 1 -6.709213 -7.451336 10.91192
634 1 -7.680945 -6.445078 10.91192
635 1 -9.159902 -4.078251 10.91192
636 1 -9.638342 -2.76375 10.91192
637 1 -10.026761 0.0 10.91192
638 1 -9.929182 1.395455 10.91192
639 1 -9.159902 4.078251 10.91192
640 1 -8.503176 5.313374 10.91192
641 1 -6.709213 7.451336 10.91192
642 1 -5.606894 8.312562 10.91192
643 1 -3.09844 9.536017 10.91192
644 1 -1.741129 9.874432 10.91192
645 1 1.048082 9.971834 10.91192
646 1 2.425693 9.728924 10.91192
647 1 5.013381 8.68343 10.91192
648 1 6.173091 7.901196 10.91192
649 1 8.11182 5.893582 10.91192
650 1 8.853105 4.707279 10.91192
651 1 9.807653 2.084681 10.91192
652 1 10.002337 0.699432 10.91192
653 1 9.807653 -2.084681 10.91192
654 1 9.422074 -3.429354 10.91192
655 1 8.11182 -5.893582 10.91192
656 1 7.212649 -6.965174 10.91192
657 1 5.013381 -8.68343 10.91192
658 1 3.756091 -9.296651 10.91192
659 1 1.048082 -9.971834 10.91192
660 1 -0.349929 -10.020653 10.91192
661 1 -5.013381 -8.68343 12.124356
662 1 -6.173091 -7.901196 12.124356
663 1 -8.11182 -5.893582 12.124356
664 1 -8.853105 -4.707279 12.124356
665 1 -9.807653 -2.084681 12.124356
666 1 -10.002337 -0.699432 12.124356
667 1 -9.807653 2.084681 12.124356
668 1 -9.422074 3.429354 12.124356
669 1 -8.11182 5.893582 12.124356
670 1 -7.212649 6.965174 12.124356
671 1 -5.013381 8.68343 12.124356
672 1 -3.756091 9.296651 12.124356
673 1 -1.048082 9.971834 12.124356
674 1 0.349929 10.020653 12.124356
675 1 3.09844 9.536017 12.124356
676 1 4.395443 9.011993 12.124356
677 1 6.709213 7.451336 12.124356
678 1 7.680945 6.445078 12.124356
679 1 9.159902 4.078251 12.124356
680 1 9.638342 2.76375 12.124356
681 1 10.026761 0.0 12.124356
682 1 9.929182 -1.395455 12.124356
683 1 9.159902 -4.078251 12.124356
684 1 8.503176 -5.313374 12.124356
685 1 6.709213 -7.451336 12.124356
686 1 5.606894 -8.312562 12.124356
687 1 3.09844 -9.536017 12.124356
688 1 1.741129 -9.874432 12.124356
689 1 -1.048082 -9.971834 12.124356
690 1 -2.425693 -9.728924 12.124356
691 1 -6.709213 -7.451336 13.336791
692 1 -7.680945 -6.445078 13.336791
693 1 -9.159902 -4.078251 13.336791
694 1 -9.638342 -2.76375 13.336791
695 1 -10.026761 0.0 13.336791
696 1 -9.929182 1.395455 13.336791
697 1 -9.159902 4.078251 13.336791
698 1 -8.503176 5.313374 13.336791
699 1 -6.709213 7.451336 13.336791
700 1 -5.606894 8.312562 13.336791
701 1 -3.09844 9.536017 13.336791
702 1 -1.741129 9.874432 13.336791
703 1 1.048082 9.971834 13.336791
704 1 2.425693 9.728924 13.336791
705 1 5.013381 8.68343 13.336791
706 1 6.173091 7.901196 13.336791
707 1 8.11182 5.893582 13.336791
708 1 8.853105 4.707279 13.336791
709 1 9.807653 2.084681 13.336791
710 1 10.002337 0.699432 13.336791
711 1 9.807653 -2.084681 13.336791
712 1 9.422074 -3.429354 13.336791
713 1 8.11182 -5.893582 13.336791
714 1 7.212649 -6.965174 13.336791
715 1 5.013381 -8.68343 13.336791
716 1 3.756091 -9.296651 13.336791
717 1 1.048082 -9.971834 13.336791
718 1 -0.349929 -10.020653 13.336791
719 1 -3.09844 -9.536017 13.336791
720 1 -4.395443 -9.011993 13.336791
721 1 -8.11182 -5.893582 14.549227
722 1 -8.853105 -4.707279 14.549227
723 1 -9.807653 -2.084681 14.549227
724 1 -10.002337 -0.699432 14.549227
725 1 -9.807653 2.084681 14.549227
726 1 -9.422074 3.429354 14.549227
727 1 -8.11182 5.893582 14.549227
728 1 -7.212649 6.965174 14.549227
729 1 -5.013381 8.68343 14.549227
730 1 -3.756091 9.296651 14.549227
731 1 -1.048082 9.971834 14.549227
732 1 0.349929 10.020653 14.549227
733 1 3.09844 9.536017 14.549227
734 1 4.395443 9.011993 14.549227
735 1 6.709213 7.451336 14.549227
736 1 7.680945 6.445078 14.549227
737 1 9.159902 4.078251 14.549227
738 1 9.638342 2.76375 14.549227
739 1 10.026761 0.0 14.549227
740 1 9.929182 -1.395455 14.549227
741 1 9.159902 -4.078251 14.549227
742 1 8.503176 -5.313374 14.549227
743 1 6.709213 -7.451336 14.549227
744 1 5.606894 -8.312562 14.549227
745 1 3.09844 -9.536017 14.549227
746 1 1.741129 -9.874432 14.549227
747 1 -1.048082 -9.971834 14.549227
748 1 -2.425693 -9.728924 14.549227
749 1 -5.013381 -8.68343 14.549227
750 1 -6.173091 -7.901196 14.549227
751 1 -9.159902 -4.078251 15.761662
752 1 -9.638342 -2.76375 15.761662
753 1 -10.026761 0.0 15.761662
754 1 -9.929182 1.395455 15.761662
755 1 -9.159902 4.078251 15.761662
756 1 -8.503176 5.313374 15.761662
757 1 -6.709213 7.451336 15.761662
758 1 -5.606894 8.312562 15.761662
759 1 -3.09844 9.536017 15.761662
760 1 -1.741129 9.874432 15.761662
761 1 1.048082 9.971834 15.761662
762 1 2.425693 9.728924 15.761662
763 1 5.013381 8.68343 15.761662
764 1 6.173091 7.901196 15.761662
765 1 8.11182 5.893582 15.761662
766 1 8.853105 4.707279 15.761662
767 1 9.807653 2.084681 15.761662
768 1 10.002337 0.699432 15.761662
769 1 9.807653 -2.084681 15.761662
770 1 9.422074 -3.429354 15.761662
771 1 8.11182 -5.893582 15.761662
772 1 7.212649 -6.965174 15.761662
773 1 5.013381 -8.68343 15.761662
774 1 3.756091 -9.296651 15.761662
775 1 1.048082 -9.971834 15.761662
776 1 -0.349929 -10.020653 15.761662
777 1 -3.09844 -9.536017 15.761662
778 1 -4.395443 -9.011993 15.761662
779 1 -6.709213 -7.451336 15.761662
780 1 -7.680945 -6.445078 15.761662
781 1 -9.807653 -2.084681 16.974098
782 1 -10.002337 -0.699432 16.974098
783 1 -9.807653 2.084681 16.974098
784 1 -9.422074 3.429354 16.974098
785 1 -8.11182 5.893582 16.974098
786 1 -7.212649 6.965174 16.974098
787 1 -5.013381 8.68343 16.974098
788 1 -3.756091 9.296651 16.974098
789 1 -1.048082 9.971834 16.974098
790 1 0.349929 10.020653 16.974098
791 1 3.09844 9.536017 16.974098
792 1 4.395443 9.011993 16.974098
793 1 6.709213 7.451336 16.974098
794 1 7.680945 6.445078 16.974098
795 1 9.159902 4.078251 16.974098
796 1 9.638342 2.76375 16.974098
797 1 10.026761 0.0 16.974098
798 1 9.929182 -1.395455 16.974098
799 1 9.159902 -4.078251 16.974098
800 1 8.503176 -5.313374 16.974098
801 1 6.709213 -7.451336 16.974098
802 1 5.606894 -8.312562 16.974098
803 1 3.09844 -9.536017 16.974098
804 1 1.741129 -9.874432 16.974098
805 1 -1.048082 -9.971834 16.974098
806 1 -2.425693 -9.728924 16.974098
807 1 -5.013381 -8.68343 16.974098
808 1 -6.173091 -7.901196 16.974098
809 1 -8.11182 -5.893582 16.974098
810 1 -8.853105 -4.707279 16.974098
811 1 -10.026761 0.0 18.186533
812 1 -9.929182 1.395455 18.186533
813 1 -9.159902 4.078251 18.186533
814 1 -8.503176 5.313374 18.186533
815 1 -6.709213 7.451336 18.186533
816 1 -5.606894 8.312562 18.186533
817 1 -3.09844 9.536017 18.186533
818 1 -1.741129 9.874432 18.186533
819 1 1.048082 9.971834 18.186533
820 1 2.425693 9.728924 18.186533
821 1 5.013381 8.68343 18.186533
822 1 6.173091 7.901196 18.186533
823 1 8.11182 5.893582 18.186533
824 1 8.853105 4.707279 18.186533
825 1 9.807653 2.084681 18.186533
826 1 10.002337 0.699432 18.186533
827 1 9.807653 -2.084681 18.186533
828 1 9.422074 -3.429354 18.186533
829 1 8.11182 -5.893582 18.186533
830 1 7.212649 -6.965174 18.186533
831 1 5.013381 -8.68343 18.186533
832 1 3.756091 -9.296651 18.186533
833 1 1.048082 -9.971834 18.186533
834 1 -0.349929 -10.020653 18.186533
835 1 -3.09844 -9.536017 18.186533
836 1 -4.395443 -9.011993 18.186533
837 1 -6.709213 -7.451336 18.186533
838 1 -7.680945 -6.445078 18.186533
839 1 -9.159902 -4.078251 18.186533
840 1 -9.638342 -2.76375 18.186533
841 1 -9.807653 2.084681 19.398969
842 1 -9.422074 3.429354 19.398969
843 1 -8.11182 5.893582 19.398969
844 1 -7.212649 6.965174 19.398969
845 1 -5.013381 8.68343 19.398969
846 1 -3.756091 9.296651 19.398969
847 1 -1.048082 9.971834 19.398969
848 1 0.349929 10.020653 19.398969
849 1 3.09844 9.536017 19.398969
850 1 4.395443 9.011993 19.398969
851 1 6.709213 7.451336 19.398969
852 1 7.680945 6.445078 19.398969
853 1 9.159902 4.078251 19.398969
854 1 9.638342 2.76375 19.398969
855 1 10.026761 0.0 19.398969
856 1 9.929182 -1.395455 19.398969
857 1 9.159902 -4.078251 19.398969
858 1 8.503176 -5.313374 19.398969
859 1 6.709213 -7.451336 19.398969
860 1 5.606894 -8.312562 19.398969
861 1 3.09844 -9.536017 19.398969
862 1 1.741129 -9.874432 19.398969
863 1 -1.048082 -9.971834 19.398969
864 1 -2.425693 -9.728924 19.398969
865 1 -5.013381 -8.68343 19.398969
866 1 -6.173091 -7.901196 19.398969
867 1 -8.11182 -5.893582 19.398969
868 1 -8.853105 -4.707279 19.398969
869 1 -9.807653 -2.084681 19.398969
870 1 -10.002337 -0.699432 19.398969
871 1 -9.159902 4.078251 20.611405
872 1 -8.503176 5.313374 20.611405
873 1 -6.709213 7.451336 20.611405